MMPS data file generated from XYZ

132 atoms
8 atom types
108 bonds
7 bond types
200 angles
9 angle types
228 dihedrals
9 dihedral types

0.000000 6.494000 xlo xhi
0.000000 29.461000 ylo yhi
0.000000 9.262144 zlo zhi
0.000000 -0.287353 0.000000 xy xz yz

Masses

1 1.008 #HGP2
2 1.008	#HGA2
3 12.01	#CG324
4 12.01	#CG321
5 16.0	#OG301
6 14.01	#NG3P3
7 207.2 #Pb
8 126.9 #I

Atoms

1 	1 	4	 0.163211 	4.024062442201875 12.284059 3.0156304061865944
2 	1 	2	 0.03936725 	4.685178513258193 11.975896 3.642999553074905
3 	1 	2	 0.03936725 	3.1526698925102448 12.408973 3.5236324458768102
4 	1 	5	 -0.42673075 	3.8924618067888894 11.309194 1.9949977818567233
5 	1 	4	 0.202432 	3.2565090732775372 10.134584 2.5270586645152906
6 	1 	2	 0.04772125 	2.287606479213267 10.296619 2.722302738885807
7 	1 	2	 0.04772125 	3.6564022330025234 9.866489 3.3654027445640713
8 	1 	3	 0.0288645  	3.463371242413067 9.063087 1.4980990550454316
9 	1 	2	 0.0863155 	3.0679376048456715 9.342083 0.660681083601902
10 	1 	2	 0.0863155 	3.013482189905427 8.231403 1.817335784448254
11 	1 	6	 -0.1938995 	4.93176239737555 8.815615 1.239008434025078
12 	1 	1	 0.293105 	5.339751300939604 9.580717 0.9373527825458932
13 	1 	1	 0.293105 	5.060145494642707 8.160697 0.6134895062704512
14 	1 	1	 0.293105 	5.289890905360094 8.552528 2.0098035310798346
15 	1 	4	 0.163211 	4.4764561507587795 13.582994 2.397513354005114
16 	1 	2	 0.03936725 	4.679006689735819 14.214932 3.1164903268557995
17 	1 	2	 0.03936725 	5.315876590247443 13.43127 1.842319736983447
18 	1 	5	 -0.42673075 	3.504016364247796 14.187239 1.5776764604852218
19 	1 	4	 0.202432 	2.334610338442986 14.648304 2.315159620826388
20 	1 	2	 0.04772125 	2.586634113322206 15.166522999999998 3.10261068623794
21 	1 	2	 0.04772125 	1.7789557017736095 13.879077 2.6334712406623675
22 	1 	3	 0.0288645 	1.5633212889018129 15.510922 1.4203718687393256
23 	1 	6	 -0.1938995 	2.393306065037423 16.643992 0.868878689985027
24 	1 	1	 0.293105 	2.848361944525895 17.01962 1.5332612108927068
25 	1 	1	 0.293105 	1.8521969647178391 17.270038 0.5218826793464852
26 	1 	1	 0.293105 	2.986646009477355 16.336125 0.2156004809946807
27 	1 	2	 0.0863155 	1.2560317654210214 14.966187999999999 0.6754858337866039
28 	1 	2	 0.0863155 	0.7619772613677738 15.867694999999998 1.9293000170347927
29	1 	4 	 0.163211 	2.039114898037152 27.014559 1.610988397198813				 
30      1 	2 	 0.03936725 	1.3779998269808347 26.706396 0.983619250310502
31      1 	2 	 0.03936725 	2.910508447728782 27.139473 1.1029863575085965
32      1 	5 	 -0.42673075 	2.1707165334501384 26.039694 2.6316210215286837
33      1 	4 	 0.202432 	2.806669328965634 24.865084 2.0995591398317073
34      1 	2 	 0.04772125 	3.77557186102576 25.027119 1.9043160644995998
35      1 	2 	 0.04772125 	2.4067761072365017 24.596989 1.2612160588213355
36      1 	3 	 0.0288645  	2.5998070978259586 23.793587 3.128519748339975
37      1 	2 	 0.0863155 	2.9952407353933546 24.072583 3.9659377197835055
38      1 	2 	 0.0863155 	3.0496951503335987 22.961903 2.809283018937153
39      1 	6 	 -0.1938995 	1.1314149428634765 23.546115 3.387610369360329
40      1 	1 	 0.293105 	0.7234270392994232 24.311217 3.6892660208395136
41      1 	1 	 0.293105 	1.0030328455963202 22.891197 4.013129297114956
42      1 	1 	 0.293105 	0.7732874348789335 23.283028 2.616815272305572
43      1 	4 	 0.163211 	1.5867222514843937 28.313494 2.229104450341884
44      1 	2 	 0.03936725 	1.3841706505032094 28.945432 1.5101284765296068
45      1 	2 	 0.03936725 	0.7473017499915845 28.16177 2.7842990664019602
46      1 	5 	 -0.42673075 	2.559161037995376 28.917739 3.0489413438617756
47      1 	4 	 0.202432 	3.7285670638001864 29.378804 2.3114581835206103
48      1 	2 	 0.04772125 	3.4765442269168223 29.897022999999997 1.5240081171474669
49      1 	2 	 0.04772125 	4.284221638465419 28.609577 1.9931475627230393
50      1 	3 	 0.0288645 	4.499857051337215 30.241421999999996 3.2062469346460816
51      1 	6 	 -0.1938995 	3.669872275201604 31.374491999999996 3.75774011340038
52      1 	1 	 0.293105 	3.214816395713133 31.750119999999995 3.0933575924927004
53      1 	1 	 0.293105 	4.2109803755211885 32.000538 4.104736124038922
54      1 	1 	 0.293105 	3.076532330761673 31.066624 4.411018322390726
55      1 	2 	 0.0863155 	4.807146636822151 29.696687999999998 3.951131970560394
56      1 	2 	 0.0863155 	5.301201078871255 30.598195 2.6973187863506136
57      1 	4 	 0.163211 	1.6082932382761728 17.176941 6.237607200584219			
58      1 	2 	 0.03936725 	0.947177167219856 17.485104 5.610238053695909
59      1 	2 	 0.03936725 	2.4796858499719483 17.052027 5.729604161855595
60      1 	5 	 -0.42673075 	1.7398939356933043 18.151806 7.258238825875682
61      1 	4 	 0.202432 	2.3758466692046563 19.326416 6.726177943217114
62      1 	2 	 0.04772125 	3.3447492012647815 19.164381 6.530934867885006
63      1 	2 	 0.04772125 	1.9759534474755245 19.594511 5.887834862206742
64      1 	3 	 0.0288645 	2.1689844380649808 20.397913 7.755138551725383
65      1 	2 	 0.0863155 	2.5644180756323767 20.118917 8.592556523168913
66      1 	2 	 0.0863155 	2.618873490572621 21.229597 7.435901822322561
67      1 	6 	 -0.1938995 	0.7005932831024988 20.645385 8.014229172745736
68      1 	1 	 0.293105 	0.29260444154259013 19.880283 8.315883825186512
69      1 	1 	 0.293105 	0.5722112478394877 21.300303 8.639747101461953
70      1 	1 	 0.293105 	0.3424657751179556 20.908472 7.243434075690979
71      1 	4 	 0.163211 	1.1558995917234145 15.878006000000001 6.85572325372729
72      1 	2 	 0.03936725 	0.9533489907422298 15.246068 6.136747279915014
73      1 	2 	 0.03936725 	0.31647909023060516 16.02973 7.410917869787367
74      1 	5 	 -0.42673075 	2.1283393782343967 15.273761000000002 7.675560147247182
75      1 	4 	 0.202432 	3.2977454040392074 14.812696 6.938076986906017
76      1 	2 	 0.04772125 	3.0457215671558417 14.294477 6.150626920532874
77      1 	2 	 0.04772125 	3.8533999787044393 15.581923000000002 6.619766366108446
78      1 	3 	 0.0288645 	4.069034391576235 13.950078 7.832865738031488
79      1 	6 	 -0.1938995 	3.2390506774447694 12.817008 8.38435791774738
80      1 	1 	 0.293105 	2.783993797956298 12.44138 7.719975396839698
81      1 	1 	 0.293105 	3.7801587157602095 12.190962 8.731354927424327
82      1 	1 	 0.293105 	2.6457096710006938 13.124875 9.037637125776133
83      1 	2 	 0.0863155 	4.376323977061173 14.494812 8.577750773945802
84      1 	2 	 0.0863155 	4.870378419110274 13.593305 7.323937589736021
85      1 	4 	 0.163211 	3.5932408444450417 2.446441000000001 7.642248210533592  			
86      1 	2 	 0.03936725 	4.254356853497213 2.754604000000001 8.269618356460311
87      1 	2 	 0.03936725 	2.7218482327492657 2.321527000000001 8.150251249262219
88      1 	5 	 -0.42673075 	3.4616391470279098 3.421306000000001 6.62161658524213
89      1 	4 	 0.202432 	2.8256864135165594 4.595916000000002 7.153677467900699
90      1 	2 	 0.04772125 	1.8567848814564338 4.433881000000002 7.348920543232805
91      1 	2 	 0.04772125 	3.225579635245692 4.864011000000001 7.9920205489110705
92      1 	3 	 0.0288645 	3.03254858265209 5.667413 6.124717858430838
93      1 	2 	 0.0863155 	2.637114945084694 5.388417 5.287299886987309
94      1 	2 	 0.0863155 	2.5826605301444494 6.499097 6.443954587833661
95      1 	6 	 -0.1938995 	4.50094073761457 5.914885 5.865627237410485
96      1 	1 	 0.293105 	4.9089296411786245 5.149783 5.5639715859312995
97      1 	1 	 0.293105 	4.629322834881727 6.569803 5.2401083096558585
98      1 	1 	 0.293105 	4.859068307603259 6.177972 6.636421335426832
99      1 	4 	 0.163211 	4.045633490997799 1.1475060000000008 7.024132157390521
100	1  	2 	 0.03936725 	4.248185029974839 0.5155680000000009 7.743109130241208
101     1  	2 	 0.03936725 	4.885054930486464 1.299230000000001 6.468938540368853
102     1  	5 	 -0.42673075 	3.0731947044868173 0.5432610000000009 6.2042952638706295
103     1  	4 	 0.202432 	1.9037886786820066 0.0821960000000009 6.941778424211795
104     1  	2 	 0.04772125 	2.1558114535612267 -0.436022999999999 7.729229489623346
105     1  	2 	 0.04772125 	1.34813404201263 0.8514230000000009 7.260090044047774
106     1  	3 	 0.0288645 	1.1324986291408332 -0.7804219999999993 6.046990672124732
107     1  	6 	 -0.1938995 	1.9624834052764437 -1.9134919999999993 5.495497493370434
108     1  	1 	 0.293105 	2.4175402847649154 -2.289119999999999 6.159880014278115
109     1  	1 	 0.293105 	1.4213753049568585 -2.539537999999999 5.148501482731893
110     1  	1 	 0.293105 	2.5558233497163747 -1.6056239999999995 4.8422192843800875
111     1  	2 	 0.0863155 	0.8252091056600418 -0.23568799999999931 5.302104637172011
112     1  	2 	 0.0863155 	0.3311546016067939 -1.137194999999999 6.5559188204202
113     1  	7 	 2.0 		0.704687 9.728906 6.760253	  
114     1  	7 	 2.0 		0.848363 5.001594 2.129182        
115     1  	7 	 2.0 		5.358284 24.459406 7.132962       
116     1  	7 	 2.0 		5.501960 19.732094 2.501890       
117     1  	8 	 -1.0 		0.648387 3.276652 4.759075        
118     1  	8 	 -1.0 		0.658381 7.892897 4.018288        
119     1  	8 	 -1.0 		0.514705 6.837603 8.649360        
120     1  	8 	 -1.0 		0.888873 12.344159 5.309153       
121     1  	8 	 -1.0 		1.032549 2.386341 0.678082        
122     1  	8 	 -1.0 		3.966703 9.546837 6.805823        
123     1  	8 	 -1.0 		4.110379 5.183663 2.174751        
124     1  	8 	 -1.0 		0.504710 11.453848 9.390146       
125     1  	8 	 -1.0 		5.558260 26.184348 4.503069       
126     1  	8 	 -1.0 		5.691942 22.623397 0.612783       
127     1  	8 	 -1.0 		5.548266 21.568103 5.243855       
128     1  	8 	 -1.0 		5.174098 27.074659 8.584062       
129     1  	8 	 -1.0 		5.317774 17.116841 3.952990       
130     1  	8 	 -1.0 		2.096268 24.277337 7.087392       
131     1  	8 	 -1.0 		2.239944 19.914163 2.456320       
132     1  	8 	 -1.0 		5.701937 18.007152 -0.128003      
 
Bonds

1 	1      1 2
2 	1      1 3
3 	2      1 4
4 	3      1 15
5 	2      4 5
6 	1      5 6
7 	1      5 7
8 	4      5 8
9 	5      8 9
10 	5      8 10
11 	6      8 11
12 	7      11 12
13 	7      11 13
14 	7      11 14
15 	1      15 16
16 	1      15 17
17 	2      15 18
18 	2      18 19
19 	1      19 20
20 	1      19 21
21 	4      19 22
22 	6      22 23
23 	5      22 27
24 	5      22 28
25 	7      23 24
26 	7      23 25
27 	7      23 26
28	1      29 30 	
29      1      29 31
30      2      29 32
31      3      29 43
32      2      32 33
33      1      33 34
34      1      33 35
35      4      33 36
36      5      36 37
37      5      36 38
38      6      36 39
39      7      39 40
40      7      39 41
41      7      39 42
42      1      43 44
43      1      43 45
44      2      43 46
45      2      46 47
46      1      47 48
47      1      47 49
48      4      47 50
49      6      50 51
50      5      50 55
51      5      50 56
52      7      51 52
53      7      51 53
54      7      51 54
55	1      57 58
56      1      57 59
57      2      57 60
58      3      57 71
59      2      60 61
60      1      61 62
61      1      61 63
62      4      61 64
63      5      64 65
64      5      64 66
65      6      64 67
66      7      67 68
67      7      67 69
68      7      67 70
69      1      71 72
70      1      71 73
71      2      71 74
72      2      74 75
73      1      75 76
74      1      75 77
75      4      75 78
76      6      78 79
77      5      78 83
78      5      78 84
79      7      79 80
80      7      79 81
81      7      79 82
82 	1      85 86
83      1      85 87
84      2      85 88
85      3      85 99
86      2      88 89
87      1      89 90
88      1      89 91
89      4      89 92
90      5      92 93
91      5      92 94
92      6      92 95
93      7      95 96
94      7      95 97
95      7      95 98
96      1      99 100
97      1      99 101
98      2      99 102
99      2      102 103
100     1      103 104
101     1      103 105
102     4      103 106
103     6      106 107
104     5      106 111
105     5      106 112
106     7      107 108
107     7      107 109
108     7      107 110






Angles

1 	1      2 1 3
2 	2      2 1 4
3 	3      2 1 15
4 	2      3 1 4
5 	3      3 1 15
6 	4      4 1 15
7 	5      1 4 5
8 	2      4 5 6
9 	2      4 5 7
10 	4      4 5 8
11 	1      6 5 7
12 	3      6 5 8
13 	3      7 5 8
14 	3      5 8 9
15 	3      5 8 10
16 	6      5 8 11
17 	1      9 8 10
18 	7      9 8 11
19 	7      10 8 11
20 	8      8 11 12
21 	8      8 11 13
22 	8      8 11 14
23 	9      12 11 13
24 	9      12 11 14
25 	9      13 11 14
26 	3      1 15 16
27 	3      1 15 17
28 	4      1 15 18
29 	1      16 15 17
30 	2      16 15 18
31 	2      17 15 18
32 	5      15 18 19
33 	2      18 19 20
34 	2      18 19 21
35 	4      18 19 22
36 	1      20 19 21
37 	3      20 19 22
38 	3      21 19 22
39 	6      19 22 23
40 	3      19 22 27
41 	3      19 22 28
42 	7      23 22 27
43 	7      23 22 28
44 	1      27 22 28
45 	8      22 23 24
46 	8      22 23 25
47 	8      22 23 26
48 	9      24 23 25 
49 	9      24 23 26
50 	9      25 23 26
51	1       30 29 31			
52      2        30 29 32
53      3        30 29 43
54      2        31 29 32
55      3        31 29 43
56      4         32 29 43
57      5         29 32 33
58      2        32 33 34
59      2        32 33 35
60      4         32 33 36
61      1       34 33 35
62      3        34 33 36
63      3        35 33 36
64      3        33 36 37
65      3        33 36 38
66      6         33 36 39
67      1       37 36 38
68      7        37 36 39
69      7        38 36 39
70      8        36 39 40
71      8        36 39 41
72      8        36 39 42
73      9       40 39 41
74      9       40 39 42
75      9       41 39 42
76      3        29 43 44
77      3        29 43 45
78      4         29 43 46
79      1       44 43 45
80      2        44 43 46
81      2        45 43 46
82      5         43 46 47
83      2        46 47 48
84      2        46 47 49
85      4         46 47 50
86      1       48 47 49
87      3        48 47 50
88      3        49 47 50
89      6         47 50 51
90      3        47 50 55
91      3        47 50 56
92      7        51 50 55
93      7        51 50 56
94      1       55 50 56
95      8        50 51 52
96      8        50 51 53
97      8        50 51 54
98      9       52 51 53
99      9       52 51 54
100     9       53 51 54
101     1       58 57 59
102     2        58 57 60
103     3        58 57 71
104     2        59 57 60
105     3        59 57 71
106     4         60 57 71
107     5         57 60 61
108     2        60 61 62
109     2        60 61 63
110     4         60 61 64
111     1       62 61 63
112     3        62 61 64
113     3        63 61 64
114     3        61 64 65
115     3        61 64 66
116     6         61 64 67
117     1       65 64 66
118     7        65 64 67
119     7        66 64 67
120     8        64 67 68
121     8        64 67 69
122     8        64 67 70
123     9       68 67 69
124     9       68 67 70
125     9       69 67 70
126     3        57 71 72
127     3        57 71 73
128     4         57 71 74
129     1       72 71 73
130     2        72 71 74
131     2        73 71 74
132     5         71 74 75
133     2        74 75 76
134     2        74 75 77
135     4         74 75 78
136     1       76 75 77
137     3        76 75 78
138     3        77 75 78
139     6         75 78 79
140     3        75 78 83
141     3        75 78 84
142     7        79 78 83
143     7        79 78 84
144     1       83 78 84
145     8        78 79 80
146     8        78 79 81
147     8        78 79 82
148     9       80 79 81
149     9       80 79 82
150     9       81 79 82
151     1       86 85 87
152     2        86 85 88
153     3        86 85 99
154     2        87 85 88
155     3        87 85 99
156     4         88 85 99
157     5         85 88 89
158     2        88 89 90
159     2        88 89 91
160     4         88 89 92
161     1       90 89 91
162     3        90 89 92
163     3        91 89 92
164     3        89 92 93
165     3        89 92 94
166     6         89 92 95
167     1       93 92 94
168     7        93 92 95
169     7        94 92 95
170     8        92 95 96
171     8        92 95 97
172     8        92 95 98
173     9       96 95 97
174     9       96 95 98
175     9       97 95 98
176     3        85 99 100
177     3        85 99 101
178     4         85 99 102
179     1       100 99 101
180     2        100 99 102
181     2        101 99 102
182     5         99 102 103
183     2        102 103 104
184     2        102 103 105
185     4         102 103 106
186     1       104 103 105
187     3        104 103 106
188     3        105 103 106
189     6         103 106 107
190     3        103 106 111
191     3        103 106 112
192     7        107 106 111
193     7        107 106 112
194     1       111 106 112
195     8        106 107 108
196     8        106 107 109
197     8        106 107 110
198     9       108 107 109
199     9       108 107 110
200     9       109 107 110

Dihedrals	

1 	 1      1 4 5 6
2 	 1      1 4 5 7
3 	 2      1 4 5 8
4 	 2      1 15 18 19
5 	 1      2 1 4 5
6 	 3      2 1 15 16
7 	 3      2 1 15 17
8 	 4      2 1 15 18
9 	 1      3 1 4 5
10 	 3      3 1 15 16
11 	 3      3 1 15 17
12 	 4      3 1 15 18
13 	 4      4 1 15 16
14 	 4      4 1 15 17
15 	 5      4 1 15 18
16 	 4      4 5 8 9
17 	 4      4 5 8 10
18 	 6      4 5 8 11
19 	 2      5 4 1 15
20 	 7      5 8 11 12
21 	 7      5 8 11 13
22 	 7      5 8 11 14
23 	 3      6 5 8 9
24 	 3      6 5 8 10
25 	 8      6 5 8 11
26 	 3      7 5 8 9
27 	 3      7 5 8 10
28 	 8      7 5 8 11
29 	 9      9 8 11 12
30 	 9      9 8 11 13
31 	 9      9 8 11 14
32 	 9      10 8 11 12
33 	 9      10 8 11 13
34 	 9      10 8 11 14
35 	 1      15 18 19 20
36 	 1      15 18 19 21
37 	 2      15 18 19 22
38 	 1      16 15 18 19
39 	 1      17 15 18 19
40 	 6      18 19 22 23
41 	 4      18 19 22 27
42 	 4      18 19 22 28
43 	 7      19 22 23 24
44 	 7      19 22 23 25
45 	 7      19 22 23 26
46 	 8      20 19 22 23
47 	 3      20 19 22 27
48 	 3      20 19 22 28
49 	 8      21 19 22 23
50 	 3      21 19 22 27
51 	 3      21 19 22 28
52 	 9      24 23 22 27
53 	 9      24 23 22 28
54 	 9      25 23 22 27
55 	 9      25 23 22 28
56 	 9      26 23 22 27
57 	 9      26 23 22 28
58   	 1      29 32 33 34
59   	 1      29 32 33 35
60   	 2      29 32 33 36
61   	 2      29 43 46 47
62   	 1      30 29 32 33
63   	 3      30 29 43 44
64   	 3      30 29 43 45
65   	 4      30 29 43 46
66   	 1      31 29 32 33
67   	 3      31 29 43 44
68   	 3      31 29 43 45
69   	 4      31 29 43 46
70   	 4      32 29 43 44
71   	 4      32 29 43 45
72   	 5      32 29 43 46
73   	 4      32 33 36 37
74   	 4      32 33 36 38
75   	 6      32 33 36 39
76   	 2      33 32 29 43
77   	 7      33 36 39 40
78   	 7      33 36 39 41
79   	 7      33 36 39 42
80   	 3      34 33 36 37
81   	 3      34 33 36 38
82   	 8      34 33 36 39
83   	 3      35 33 36 37
84   	 3      35 33 36 38
85   	 8      35 33 36 39
86   	 9      37 36 39 40
87   	 9      37 36 39 41
88   	 9      37 36 39 42
89   	 9      38 36 39 40
90   	 9      38 36 39 41
91   	 9      38 36 39 42
92   	 1      43 46 47 48
93   	 1      43 46 47 49
94   	 2      43 46 47 50
95   	 1      44 43 46 47
96   	 1      45 43 46 47
97   	 6      46 47 50 51
98   	 4      46 47 50 55
99   	 4      46 47 50 56
100  	 7      47 50 51 52
101  	 7      47 50 51 53
102  	 7      47 50 51 54
103  	 8      48 47 50 51
104  	 3      48 47 50 55
105  	 3      48 47 50 56
106  	 8      49 47 50 51
107  	 3      49 47 50 55
108  	 3      49 47 50 56
109  	 9      52 51 50 55
110  	 9      52 51 50 56
111  	 9      53 51 50 55
112  	 9      53 51 50 56
113  	 9      54 51 50 55
114  	 9      54 51 50 56
115	 1      57 60 61 62
116      1      57 60 61 63
117      2      57 60 61 64
118      2      57 71 74 75
119      1      58 57 60 61
120      3      58 57 71 72
121      3      58 57 71 73
122      4      58 57 71 74
123      1      59 57 60 61
124      3      59 57 71 72
125      3      59 57 71 73
126      4      59 57 71 74
127      4      60 57 71 72
128      4      60 57 71 73
129      5      60 57 71 74
130      4      60 61 64 65
131      4      60 61 64 66
132      6      60 61 64 67
133      2      61 60 57 71
134      7      61 64 67 68
135      7      61 64 67 69
136      7      61 64 67 70
137      3      62 61 64 65
138      3      62 61 64 66
139      8      62 61 64 67
140      3      63 61 64 65
141      3      63 61 64 66
142      8      63 61 64 67
143      9      65 64 67 68
144      9      65 64 67 69
145      9      65 64 67 70
146      9      66 64 67 68
147      9      66 64 67 69
148      9      66 64 67 70
149      1      71 74 75 76
150      1      71 74 75 77
151      2      71 74 75 78
152      1      72 71 74 75
153      1      73 71 74 75
154      6      74 75 78 79
155      4      74 75 78 83
156      4      74 75 78 84
157      7      75 78 79 80
158      7      75 78 79 81
159      7      75 78 79 82
160      8      76 75 78 79
161      3      76 75 78 83
162      3      76 75 78 84
163      8      77 75 78 79
164      3      77 75 78 83
165      3      77 75 78 84
166      9      80 79 78 83
167      9      80 79 78 84
168      9      81 79 78 83
169      9      81 79 78 84
170      9      82 79 78 83
171      9      82 79 78 84
172      1      85 88 89 90
173      1      85 88 89 91
174      2      85 88 89 92
175      2      85 99 102 103
176      1      86 85 88 89
177      3      86 85 99 100
178      3      86 85 99 101
179      4      86 85 99 102
180      1      87 85 88 89
181      3      87 85 99 100
182      3      87 85 99 101
183      4      87 85 99 102
184      4      88 85 99 100
185      4      88 85 99 101
186      5      88 85 99 102
187      4      88 89 92 93
188      4      88 89 92 94
189      6      88 89 92 95
190      2      89 88 85 99
191      7      89 92 95 96
192      7      89 92 95 97
193      7      89 92 95 98
194      3      90 89 92 93
195      3      90 89 92 94
196      8      90 89 92 95
197      3      91 89 92 93
198      3      91 89 92 94
199      8      91 89 92 95
200      9      93 92 95 96
201      9      93 92 95 97
202      9      93 92 95 98
203      9      94 92 95 96
204      9      94 92 95 97
205      9      94 92 95 98
206      1      99 102 103 104
207      1      99 102 103 105
208      2      99 102 103 106
209      1      100 99 102 103
210      1      101 99 102 103
211      6      102 103 106 107
212      4      102 103 106 111
213      4      102 103 106 112
214      7      103 106 107 108
215      7      103 106 107 109
216      7      103 106 107 110
217      8      104 103 106 107
218      3      104 103 106 111
219      3      104 103 106 112
220      8      105 103 106 107
221      3      105 103 106 111
222      3      105 103 106 112
223      9      108 107 106 111
224      9      108 107 106 112
225      9      109 107 106 111
226      9      109 107 106 112
227      9      110 107 106 111
228      9      110 107 106 112

Bond Coeffs

1 309.00     1.1110	
2 360.00     1.4150
3 222.50     1.5300
4 222.50     1.5300
5 284.50     1.1000	
6 200.00     1.4900
7 403.00     1.0400	

Angle Coeffs

1 35.50    109.00  
2 45.90    108.89
3 26.50    110.10
4 45.00    111.50   
5 95.00    109.70   
6 67.70    110.00   
7 45.00    107.50   
8 30.00    109.50   
9 44.00    109.50   

Dihedral Coeffs

1 	0.2840  3     0 	1.0
2 	0.4300  3     0 	1.0 
3 	0.2200  3     0 	1.0
4 	0.1900  3     0 	1.0
5 	1.2400  2     0 	1.0	 
6 	0.2000  3     0 	1.0 
7 	0.1000  3     0 	1.0	 
8 	0.1950  3     0 	1.0
9 	0.1000  3     0 	1.0
